-- Small Sample GRDECL File for Testing
-- 5x5x3 grid (75 cells)
-- Simplified version of SPE9 format for tutorials and testing

SPECGRID
5 5 3 1 F
/

COORD
-- Grid corner points (simplified)
0.0 0.0 0.0 0.0 0.0 100.0
100.0 0.0 0.0 100.0 0.0 100.0
200.0 0.0 0.0 200.0 0.0 100.0
300.0 0.0 0.0 300.0 0.0 100.0
400.0 0.0 0.0 400.0 0.0 100.0
500.0 0.0 0.0 500.0 0.0 100.0
/

PERMX
-- Permeability in X direction (mD)
-- Layer 1 (high permeability)
500.0 450.0 480.0 520.0 490.0
470.0 510.0 495.0 505.0 485.0
490.0 500.0 510.0 490.0 480.0
505.0 495.0 500.0 515.0 475.0
480.0 490.0 505.0 495.0 500.0
-- Layer 2 (medium permeability)
250.0 230.0 245.0 260.0 240.0
235.0 255.0 248.0 252.0 242.0
245.0 250.0 255.0 245.0 240.0
252.0 248.0 250.0 258.0 238.0
240.0 245.0 252.0 248.0 250.0
-- Layer 3 (low permeability)
100.0 95.0 98.0 105.0 97.0
94.0 102.0 99.0 101.0 96.0
98.0 100.0 102.0 98.0 96.0
101.0 99.0 100.0 103.0 95.0
96.0 98.0 101.0 99.0 100.0
/

PERMY
-- Permeability in Y direction (mD) - same as PERMX for simplicity
500.0 450.0 480.0 520.0 490.0
470.0 510.0 495.0 505.0 485.0
490.0 500.0 510.0 490.0 480.0
505.0 495.0 500.0 515.0 475.0
480.0 490.0 505.0 495.0 500.0
250.0 230.0 245.0 260.0 240.0
235.0 255.0 248.0 252.0 242.0
245.0 250.0 255.0 245.0 240.0
252.0 248.0 250.0 258.0 238.0
240.0 245.0 252.0 248.0 250.0
100.0 95.0 98.0 105.0 97.0
94.0 102.0 99.0 101.0 96.0
98.0 100.0 102.0 98.0 96.0
101.0 99.0 100.0 103.0 95.0
96.0 98.0 101.0 99.0 100.0
/

PERMZ
-- Permeability in Z direction (mD) - typically lower than horizontal
50.0 45.0 48.0 52.0 49.0
47.0 51.0 49.5 50.5 48.5
49.0 50.0 51.0 49.0 48.0
50.5 49.5 50.0 51.5 47.5
48.0 49.0 50.5 49.5 50.0
25.0 23.0 24.5 26.0 24.0
23.5 25.5 24.8 25.2 24.2
24.5 25.0 25.5 24.5 24.0
25.2 24.8 25.0 25.8 23.8
24.0 24.5 25.2 24.8 25.0
10.0 9.5 9.8 10.5 9.7
9.4 10.2 9.9 10.1 9.6
9.8 10.0 10.2 9.8 9.6
10.1 9.9 10.0 10.3 9.5
9.6 9.8 10.1 9.9 10.0
/

PORO
-- Porosity (fraction)
-- Layer 1 (good porosity)
0.25 0.24 0.26 0.25 0.24
0.26 0.25 0.24 0.25 0.26
0.25 0.25 0.26 0.24 0.25
0.24 0.26 0.25 0.25 0.24
0.25 0.24 0.25 0.26 0.25
-- Layer 2 (moderate porosity)
0.20 0.19 0.21 0.20 0.19
0.21 0.20 0.19 0.20 0.21
0.20 0.20 0.21 0.19 0.20
0.19 0.21 0.20 0.20 0.19
0.20 0.19 0.20 0.21 0.20
-- Layer 3 (lower porosity)
0.15 0.14 0.16 0.15 0.14
0.16 0.15 0.14 0.15 0.16
0.15 0.15 0.16 0.14 0.15
0.14 0.16 0.15 0.15 0.14
0.15 0.14 0.15 0.16 0.15
/

NTG
-- Net-to-Gross ratio (fraction)
1.0 1.0 1.0 1.0 1.0
1.0 1.0 1.0 1.0 1.0
1.0 1.0 1.0 1.0 1.0
1.0 1.0 1.0 1.0 1.0
1.0 1.0 1.0 1.0 1.0
0.95 0.95 0.95 0.95 0.95
0.95 0.95 0.95 0.95 0.95
0.95 0.95 0.95 0.95 0.95
0.95 0.95 0.95 0.95 0.95
0.95 0.95 0.95 0.95 0.95
0.90 0.90 0.90 0.90 0.90
0.90 0.90 0.90 0.90 0.90
0.90 0.90 0.90 0.90 0.90
0.90 0.90 0.90 0.90 0.90
0.90 0.90 0.90 0.90 0.90
/
